
                                 *****************
                                 * O   R   C   A *
                                 *****************

                                            #,                                       
                                            ###                                      
                                            ####                                     
                                            #####                                    
                                            ######                                   
                                           ########,                                 
                                     ,,################,,,,,                         
                               ,,#################################,,                 
                          ,,##########################################,,             
                       ,#########################################, ''#####,          
                    ,#############################################,,   '####,        
                  ,##################################################,,,,####,       
                ,###########''''           ''''###############################       
              ,#####''   ,,,,##########,,,,          '''####'''          '####       
            ,##' ,,,,###########################,,,                        '##       
           ' ,,###''''                  '''############,,,                           
         ,,##''                                '''############,,,,        ,,,,,,###''
      ,#''                                            '''#######################'''  
     '                                                          ''''####''''         
             ,#######,   #######,   ,#######,      ##                                
            ,#'     '#,  ##    ##  ,#'     '#,    #''#        ,####,   ,####,        
            ##       ##  ##   ,#'  ##            #'  '#       #'       #'  '#        
            ##       ##  #######   ##           ,######,      #####,   #    #        
            '#,     ,#'  ##    ##  '#,     ,#' ,#      #,     #,   #   #,  ,#        
             '#######'   ##     ##  '#######'  #'      '#     '####' # '####'        



                #########################################################
                #                        -***-                          #
                #          Department of theory and spectroscopy        #
                #                                                       #
                #                      Frank Neese                      #
                #                                                       #
                #     Directorship, Architecture, Infrastructure        #
                #                    SHARK, DRIVERS                     #
                #        Core code/Algorithms in most modules           #
                #                                                       #
                #        Max Planck Institute fuer Kohlenforschung      #
                #                Kaiser Wilhelm Platz 1                 #
                #                 D-45470 Muelheim/Ruhr                 #
                #                      Germany                          #
                #                                                       #
                #                  All rights reserved                  #
                #                        -***-                          #
                #########################################################


                         Program Version 6.0.1  -  RELEASE   -


 With contributions from (in alphabetic order):
[Max-Planck-Institut fuer Kohlenforschung]                               
  Daniel Aravena         : Magnetic Suceptibility                        
  Michael Atanasov       : Ab Initio Ligand Field Theory (pilot matlab implementation)
  Alexander A. Auer      : GIAO ZORA, VPT2 properties, NMR spectrum      
  Ute Becker             : All parallelization in ORCA, NUMFREQ, NUMCALC 
  Giovanni Bistoni       : ED, misc. LED, open-shell LED, HFLD           
  Martin Brehm           : Molecular dynamics                            
  Dmytro Bykov           : pre 5.0 version of the SCF Hessian            
  Marcos Casanova-Páez   : Triplet and SCS-CIS(D). UHF-(DLPNO)-IP/EA/STEOM-CCSD. UHF-CVS-IP/STEOM-CCSD   
  Vijay G. Chilkuri      : MRCI spin determinant printing, contributions to CSF-ICE 
  Pauline Colinet        : FMM embedding                                 
  Dipayan Datta          : RHF DLPNO-CCSD density                        
  Achintya Kumar Dutta   : EOM-CC, STEOM-CC                              
  Nicolas Foglia         : Exact transition moments, OPA infrastructure, MCD improvements    
  Dmitry Ganyushin       : Spin-Orbit,Spin-Spin,Magnetic field MRCI      
  Miquel Garcia-Rates    : C-PCM and meta-GGA Hessian, CCSD/C-PCM, Gaussian charge scheme 
  Tiago L. C. Gouveia    : GS-ROHF, GS-ROCIS                             
  Yang Guo               : DLPNO-NEVPT2, F12-NEVPT2, CIM, IAO-localization        
  Andreas Hansen         : Spin unrestricted coupled pair/coupled cluster methods 
  Ingolf Harden          : AUTO-CI MPn and infrastructure                
  Benjamin Helmich-Paris : MC-RPA, TRAH-(SCF,CASSCF), AVAS, COSX integrals, SCF dyn. polar. 
  Lee Huntington         : MR-EOM, pCC                                   
  Robert Izsak           : Overlap fitted RIJCOSX, COSX-SCS-MP3, EOM     
  Riya Kayal             : Wick's Theorem for AUTO-CI, AUTO-CI UHF-CCSDT 
  Emily Kempfer          : AUTO-CI, RHF CISDT and CCSDT                  
  Christian Kollmar      : KDIIS, OOCD, Brueckner-CCSD(T), CCSD density, CASPT2, CASPT2-K, improved NEVPT2 
  Axel Koslowski         : Symmetry handling                             
  Simone Kossmann        : meta-GGA functionals, TD-DFT gradient, OOMP2, (MP2 Hessian; deprecated post 5.0) 
  Lucas Lang             : DCDCAS                                        
  Marvin Lechner         : AUTO-CI (C++ implementation), FIC-MRCC        
  Spencer Leger          : CASSCF response                               
  Dagmar Lenk            : GEPOL surface, SMD, ORCA-2-JSON               
  Dimitrios Liakos       : Extrapolation schemes; Compound Job, initial MDCI parallelization 
  Dimitrios Manganas     : Further ROCIS development; embedding schemes. LFT, Crystal Embedding 
  Dimitrios Pantazis     : SARC Basis sets                               
  Anastasios Papadopoulos: AUTO-CI, single reference methods and gradients 
  Taras Petrenko         : pre 6.0 DFT Hessian and TD-DFT gradient, (ASA, deprecated), ECA, 1-Electron XAS/XES, NRVS 
  Peter Pinski           : DLPNO-MP2, DLPNO-MP2 Gradient                 
  Christoph Reimann      : Effective Core Potentials                     
  Marius Retegan         : Local ZFS, SOC                                
  Christoph Riplinger    : Optimizer, TS searches, QM/MM, DLPNO-CCSD(T), (RO)-DLPNO pert. Triples 
  Michael Roemelt        : Original ROCIS implementation                 
  Masaaki Saitow         : Open-shell DLPNO-CCSD energy and density      
  Barbara Sandhoefer     : DKH picture change effects                    
  Kantharuban Sivalingam : CASSCF convergence/infrastructure, NEVPT2 and variants, FIC-MRCI 
  Bernardo de Souza      : ESD, SOC TD-DFT                               
  Georgi L. Stoychev     : AutoAux, RI-MP2 NMR, DLPNO-MP2 response, X2C  
  Van Anh Tran           : RI-MP2 g-tensors                              
  Willem Van den Heuvel  : Paramagnetic NMR                              
  Zikuan Wang            : NOTCH, Electric field optimization            
  Frank Wennmohs         : Technical directorship and infrastructure     
  Hang Xu                : AUTO-CI-Response properties                   
                                                                         
[FACCTs GmbH]                                                            
  Markus Bursch, Miquel Garcia-Rates, Christoph Riplinger, Bernardo de Souza, Georgi L. Stoychev 
                                                                 
  APM, Basis sets (HGBS, AHGBS, def-TZVP (Ac-Lr), def2-XVPD (La-Lu)), CI-OPT, improved COSX, DLPNO-Multilevel,           
  DOCKER, DRACO, updates on ESD, GOAT, IRC, LR-CPCM, MBIS, meta-GGA TD-DFT gradient, ML-optimized integration grids, 
  MM, NACMEs, nearIR, NEB, NEB-TS, NL-DFT gradient (VV10), 2- and 3-layer-ONIOM, interface openCOSMO-RS, QMMM,   
  Crystal-QMMM, SF, symmetry and pop. for TD-DFT, r2SCAN hybrids, SOLVATOR                                   
                                                                         
[Other institutions]                                                     
  V. Asgeirsson          : NEB                                           
  Christoph Bannwarth    : sTDA-DFT, sTD-DFT, PBEh-3c, B97-3c, D3        
  Sebastian Ehlert       : rSCAN, r2SCAN, r2SCAN-3c, D4, dhf basis sets  
  Marvin Friede          : D4 for Fr, Ra, Ac-Lr                          
  Lars Goerigk           : TD-DFT with DH, B97 family of functionals     
  Stefan Grimme          : VdW corrections, initial TS optimization, DFT functionals, gCP, sTDA/sTD-DF 
  Waldemar Hujo          : DFT-NL                                        
  H. Jonsson             : NEB                                           
  Holger Kruse           : gCP                                           
  Marcel Mueller         : wB97X-3c, vDZP basis set                      
  Hagen Neugebauer       : wr2SCAN                                       
  Tobias Risthaus        : range-separated hybrid DFT                    
  Lukas Wittmann         : regularized MP2, r2SCAN double-hybrids, wr2SCAN        
                                                                         
We gratefully acknowledge several colleagues who have allowed us to      
interface, adapt or use parts of their codes:                            
  Ed Valeev, F. Pavosevic, A. Kumar             : LibInt (2-el integral package), F12 methods 
  Garnet Chan, S. Sharma, J. Yang, R. Olivares  : DMRG                   
  Ulf Ekstrom                                   : XCFun DFT Library      
  Mihaly Kallay                                 : mrcc  (arbitrary order and MRCC methods)
  Frank Weinhold                                : gennbo (NPA and NBO analysis)           
  Simon Mueller                                 : openCOSMO-RS                            
  Christopher J. Cramer and Donald G. Truhlar   : smd solvation model                     
  S Lehtola, MJT Oliveira, MAL Marques          : LibXC Library                           
  Liviu Ungur et al                             : ANISO software                          


 Your calculation uses the libint2 library for the computation of 2-el integrals
 For citations please refer to: http://libint.valeyev.net

 Your ORCA version has been built with support for libXC version: 6.2.2
 For citations please refer to: https://libxc.gitlab.io

 This ORCA versions uses:
   CBLAS   interface :  Fast vector & matrix operations
   LAPACKE interface :  Fast linear algebra routines
   SCALAPACK package :  Parallel linear algebra routines
   Shared memory     :  Shared parallel matrices
   BLAS/LAPACK       :  OpenBLAS 0.3.27  USE64BITINT DYNAMIC_ARCH NO_AFFINITY Haswell SINGLE_THREADED
        Core in use  :  Haswell
   Copyright (c) 2011-2014, The OpenBLAS Project


Warning: RI is on but no J-basis has been assigned. Assigning Def2/J (nothing to worry about!)
================================================================================

----- Orbital basis set information -----
Your calculation utilizes the basis: def2-SVP
   F. Weigend and R. Ahlrichs, Phys. Chem. Chem. Phys. 7, 3297 (2005).

----- AuxJ basis set information -----
Your calculation utilizes the auxiliary basis: def2/J
   F. Weigend, Phys. Chem. Chem. Phys. 8, 1057 (2006).

================================================================================
                                        WARNINGS
                       Please study these warnings very carefully!
================================================================================


WARNING: Geometry Optimization
  ===> : Switching off AutoStart
         For restart on a previous wavefunction, please use MOREAD

================================================================================
                                       INPUT FILE
================================================================================
NAME = opt.inp
|  1> ! TPSS def2-SVP OPT PAL4
|  2> 
|  3> * XYZ 0 1 
|  4> N 0 0 0
|  5> H 0 0 1
|  6> H 0 1 0 
|  7> H 1 0 0
|  8> *
|  9> 
| 10>                          ****END OF INPUT****
================================================================================

                       *****************************
                       * Geometry Optimization Run *
                       *****************************

Geometry optimization settings:
Update method            Update   .... BFGS
Choice of coordinates    CoordSys .... (2022) Redundant Internals
Initial Hessian          InHess   .... Almloef's Model
Max. no of cycles        MaxIter  .... 50

Convergence Tolerances:
Energy Change            TolE     ....  5.0000e-06 Eh
Max. Gradient            TolMAXG  ....  3.0000e-04 Eh/bohr
RMS Gradient             TolRMSG  ....  1.0000e-04 Eh/bohr
Max. Displacement        TolMAXD  ....  4.0000e-03 bohr
RMS Displacement         TolRMSD  ....  2.0000e-03 bohr
Strict Convergence                .... False

------------------------------------------------------------------------------
                        ORCA OPTIMIZATION COORDINATE SETUP
------------------------------------------------------------------------------

The optimization will be done in redundant internal coordinates (2022)
Making redundant internal coordinates   ...  (2022 redundants) done
Evaluating the initial hessian          ...  (Almloef) done
Evaluating the coordinates              ...  done
Calculating the B-matrix                .... done
Calculating the G-matrix                .... done
Diagonalizing the G-matrix              .... done
The first mode is                       ....    0
The number of degrees of freedom        ....    6

    -----------------------------------------------------------------
                    Redundant Internal Coordinates


    -----------------------------------------------------------------
         Definition                    Initial Value    Approx d2E/dq
    -----------------------------------------------------------------
      1. B(H   1,N   0)                  1.0000         0.448900   
      2. B(H   2,N   0)                  1.0000         0.448900   
      3. B(H   3,N   0)                  1.0000         0.448900   
      4. A(H   1,N   0,H   3)           90.0000         0.306850   
      5. A(H   2,N   0,H   3)           90.0000         0.306850   
      6. A(H   1,N   0,H   2)           90.0000         0.306850   
    -----------------------------------------------------------------

Number of atoms                         .... 4
Number of degrees of freedom            .... 6


         *************************************************************
         *                GEOMETRY OPTIMIZATION CYCLE   1            *
         *************************************************************
---------------------------------
CARTESIAN COORDINATES (ANGSTROEM)
---------------------------------
  N      0.000000    0.000000    0.000000
  H      0.000000    0.000000    1.000000
  H      0.000000    1.000000    0.000000
  H      1.000000    0.000000    0.000000

----------------------------
CARTESIAN COORDINATES (A.U.)
----------------------------
  NO LB      ZA    FRAG     MASS         X           Y           Z
   0 N     7.0000    0    14.007    0.000000    0.000000    0.000000
   1 H     1.0000    0     1.008    0.000000    0.000000    1.889726
   2 H     1.0000    0     1.008    0.000000    1.889726    0.000000
   3 H     1.0000    0     1.008    1.889726    0.000000    0.000000

--------------------------------
INTERNAL COORDINATES (ANGSTROEM)
--------------------------------
 N      0   0   0     0.000000000000     0.00000000     0.00000000
 H      1   0   0     1.000000000000     0.00000000     0.00000000
 H      1   2   0     1.000000000000    90.00000000     0.00000000
 H      1   2   3     1.000000000000    90.00000000    90.00000000

---------------------------
INTERNAL COORDINATES (A.U.)
---------------------------
 N      0   0   0     0.000000000000     0.00000000     0.00000000
 H      1   0   0     1.889726133921     0.00000000     0.00000000
 H      1   2   0     1.889726133921    90.00000000     0.00000000
 H      1   2   3     1.889726133921    90.00000000    90.00000000

---------------------
BASIS SET INFORMATION
---------------------
There are 2 groups of distinct atoms

 Group   1 Type N   : 7s4p1d contracted to 3s2p1d pattern {511/31/1}
 Group   2 Type H   : 4s1p contracted to 2s1p pattern {31/1}

Atom   0N    basis set group =>   1
Atom   1H    basis set group =>   2
Atom   2H    basis set group =>   2
Atom   3H    basis set group =>   2
---------------------------------
AUXILIARY/J BASIS SET INFORMATION
---------------------------------
There are 2 groups of distinct atoms

 Group   1 Type N   : 12s5p4d2f1g contracted to 6s4p3d1f1g pattern {711111/2111/211/2/1}
 Group   2 Type H   : 5s2p1d contracted to 3s1p1d pattern {311/2/1}

Atom   0N    basis set group =>   1
Atom   1H    basis set group =>   2
Atom   2H    basis set group =>   2
Atom   3H    basis set group =>   2


           ************************************************************
           *        Program running with 4 parallel MPI-processes     *
           *              working on a common directory               *
           ************************************************************
------------------------------------------------------------------------------
                             ORCA STARTUP CALCULATIONS
                           -- RI-GTO INTEGRALS CHOSEN --
------------------------------------------------------------------------------
------------------------------------------------------------------------------
                   ___                                                        
                  /   \      - P O W E R E D   B Y -                         
                 /     \                                                     
                 |  |  |   _    _      __       _____    __    __             
                 |  |  |  | |  | |    /  \     |  _  \  |  |  /  |          
                  \  \/   | |  | |   /    \    | | | |  |  | /  /          
                 / \  \   | |__| |  /  /\  \   | |_| |  |  |/  /          
                |  |  |   |  __  | /  /__\  \  |    /   |      \           
                |  |  |   | |  | | |   __   |  |    \   |  |\   \          
                \     /   | |  | | |  |  |  |  | |\  \  |  | \   \       
                 \___/    |_|  |_| |__|  |__|  |_| \__\ |__|  \__/        
                                                                              
                      - O R C A' S   B I G   F R I E N D -                    
                                      &                                       
                       - I N T E G R A L  F E E D E R -                       
                                                                              
 v1 FN, 2020, v2 2021, v3 2022-2024                                           
------------------------------------------------------------------------------


----------------------
SHARK INTEGRAL PACKAGE
----------------------

Number of atoms                             ...      4
Number of basis functions                   ...     29
Number of shells                            ...     15
Maximum angular momentum                    ...      2
Integral batch strategy                     ... SHARK/LIBINT Hybrid
RI-J (if used) integral strategy            ... SPLIT-RIJ (Revised 2003 algorithm where possible)
Printlevel                                  ...      1
Contraction scheme used                     ... SEGMENTED contraction
Prescreening option                         ... SCHWARTZ
   Thresh                                   ... 2.500e-11
   Tcut                                     ... 2.500e-12
   Tpresel                                  ... 2.500e-12 
Coulomb Range Separation                    ... NOT USED
Exchange Range Separation                   ... NOT USED
Multipole approximations                    ... NOT USED
Finite Nucleus Model                        ... NOT USED
CABS basis                                  ... NOT available
Auxiliary Coulomb fitting basis             ... AVAILABLE
   # of basis functions in Aux-J            ...     82
   # of shells in Aux-J                     ...     30
   Maximum angular momentum in Aux-J        ...      4
Auxiliary J/K fitting basis                 ... NOT available
Auxiliary Correlation fitting basis         ... NOT available
Auxiliary 'external' fitting basis          ... NOT available

Checking pre-screening integrals            ... done (  0.0 sec) Dimension = 15
Check shell pair data                       ... done (  0.0 sec)
Shell pair information
Shell pair cut-off parameter TPreSel        ...   2.5e-12
Total number of shell pairs                 ...       120
Shell pairs after pre-screening             ...       120
Total number of primitive shell pairs       ...       400
Primitive shell pairs kept                  ...       388
          la=0 lb=0:     45 shell pairs
          la=1 lb=0:     45 shell pairs
          la=1 lb=1:     15 shell pairs
          la=2 lb=0:      9 shell pairs
          la=2 lb=1:      5 shell pairs
          la=2 lb=2:      1 shell pairs

Calculating one electron integrals          ... done (  0.0 sec)
Calculating RI/J V-Matrix + Cholesky decomp.... done (  0.0 sec)
Calculating Nuclear repulsion               ... done (  0.0 sec) ENN=     12.235275751615 Eh

Diagonalization of the overlap matrix:
Smallest eigenvalue                        ... 2.144e-02
Time for diagonalization                   ...    0.001 sec
Threshold for overlap eigenvalues          ... 1.000e-07
Number of eigenvalues below threshold      ... 0
Time for construction of square roots      ...    0.000 sec
Total time needed                          ...    0.001 sec

-------------------
DFT GRID GENERATION
-------------------

General Integration Accuracy     IntAcc      ... 4.388
Radial Grid Type                 RadialGrid  ... OptM3 with GC (2021)
Angular Grid (max. ang.)         AngularGrid ... 4 (Lebedev-302)
Angular grid pruning method      GridPruning ... 4 (adaptive)
Weight generation scheme         WeightScheme... mBecke (2022)
Basis function cutoff            BFCut       ... 1.0000e-11
Integration weight cutoff        WCut        ... 1.0000e-14
Partially contracted basis set               ... off
Rotationally invariant grid construction     ... off
Angular grids for H and He will be reduced by one unit

Total number of grid points                  ...    15979
Total number of batches                      ...      252
Average number of points per batch           ...       63
Average number of grid points per atom       ...     3995
Initializing property integral containers    ... done (  0.0 sec)

SHARK setup successfully completed in   0.1 seconds

Maximum memory used throughout the entire STARTUP-calculation: 8.7 MB


           ************************************************************
           *        Program running with 4 parallel MPI-processes     *
           *              working on a common directory               *
           ************************************************************
-------------------------------------------------------------------------------
                                 ORCA GUESS
                   Start orbitals & Density for SCF / CASSCF
-------------------------------------------------------------------------------

------------
SCF SETTINGS
------------
Hamiltonian:
 Density Functional     Method          .... DFT(GTOs)
 Exchange Functional    Exchange        .... TPSS
 Correlation Functional Correlation     .... TPSS
 LDA part of GGA corr.  LDAOpt          .... PW91-LDA
 Gradients option       PostSCFGGA      .... off
   NL short-range parameter             ....  5.000000
 RI-approximation to the Coulomb term is turned on
   Number of AuxJ basis functions       .... 82


General Settings:
 Integral files         IntName         .... opt
 Hartree-Fock type      HFTyp           .... RHF
 Total Charge           Charge          ....    0
 Multiplicity           Mult            ....    1
 Number of Electrons    NEL             ....   10
 Basis Dimension        Dim             ....   29
 Nuclear Repulsion      ENuc            ....     12.2352757516 Eh

Convergence Acceleration:
 AO-DIIS                CNVDIIS         .... on
   Start iteration      DIISMaxIt       ....    12
   Startup error        DIISStart       ....  0.200000
   # of expansion vecs  DIISMaxEq       ....     5
   Bias factor          DIISBfac        ....   1.050
   Max. coefficient     DIISMaxC        ....  10.000
 MO-DIIS                CNVKDIIS        .... off
 Trust-Rad. Augm. Hess. CNVTRAH         .... auto
   Auto Start mean grad. ratio tolernc. ....  1.125000
   Auto Start start iteration           ....    50
   Auto Start num. interpolation iter.  ....    10
   Max. Number of Micro iterations      ....    24
   Max. Number of Macro iterations      .... Maxiter - #DIIS iter
   Number of Davidson start vectors     ....     2
   Converg. threshold    (grad. norm)   ....   1.000e-05
   Grad. Scal. Fac. for Micro threshold ....   0.100
   Minimum threshold for Micro iter.    ....   1.000e-02
   NR start threshold (gradient norm)   ....   1.000e-04
   Initial trust radius                 ....   0.400
   Minimum AH scaling param. (alpha)    ....   1.000
   Maximum AH scaling param. (alpha)    .... 1000.000
   Quad. conv. algorithm                .... NR
   White noise on init. David. guess    .... on
   Maximum white noise                  ....   0.010
   Pseudo random numbers                .... off
   Inactive MOs                         .... canonical
   Orbital update algorithm             .... Taylor
   Preconditioner                       .... Diag
   Full preconditioner red. dimension   ....   250
 SOSCF                  CNVSOSCF        .... on
   Start iteration      SOSCFMaxIt      ....   150
   Startup grad/error   SOSCFStart      ....  0.003300
   Hessian update       SOSCFHessUp     .... L-BFGS
 Level Shifting         CNVShift        .... on
   Level shift para.    LevelShift      ....    0.2500
   Turn off err/grad.   ShiftErr        ....    0.0010
 Zerner damping         CNVZerner       .... off
 Static damping         CNVDamp         .... on
   Fraction old density DampFac         ....    0.7000
   Max. Damping (<1)    DampMax         ....    0.9800
   Min. Damping (>=0)   DampMin         ....    0.0000
   Turn off err/grad.   DampErr         ....    0.1000

SCF Procedure:
 Maximum # iterations   MaxIter         ....   125
 SCF integral mode      SCFMode         .... Direct
   Integral package                     .... SHARK and LIBINT hybrid scheme
 Reset frequency        DirectResetFreq ....    20
 Integral Threshold     Thresh          ....  2.500e-11 Eh
 Primitive CutOff       TCut            ....  2.500e-12 Eh

Convergence Tolerance:
 Convergence Check Mode ConvCheckMode   .... Total+1el-Energy
 Convergence forced     ConvForced      .... 0
 Energy Change          TolE            ....  1.000e-08 Eh
 1-El. energy change                    ....  1.000e-05 Eh
 Orbital Gradient       TolG            ....  1.000e-05
 Orbital Rotation angle TolX            ....  1.000e-05
 DIIS Error             TolErr          ....  5.000e-07

------------------------------
INITIAL GUESS: MODEL POTENTIAL
------------------------------
Loading Hartree-Fock densities                     ... done
Calculating cut-offs                               ... done
Initializing the effective Hamiltonian             ... done
Setting up the integral package (SHARK)            ... done
Starting the Coulomb interaction                   ... done (   0.0 sec)
Making the grid                                    ... done (   0.0 sec)
Mapping shells                                     ... done
Starting the XC term evaluation                    ... done (   0.0 sec)
  promolecular density results
     # of electrons  =     10.000125136
     EX              =     -7.420094431
     EC              =     -0.308471025
     EX+EC           =     -7.728565456
Transforming the Hamiltonian                       ... done (   0.0 sec)
Diagonalizing the Hamiltonian                      ... done (   0.0 sec)
Back transforming the eigenvectors                 ... done (   0.0 sec)
Now organizing SCF variables                       ... done
                      ------------------
                      INITIAL GUESS DONE (   0.0 sec)
                      ------------------
             **** ENERGY FILE WAS UPDATED (opt.en.tmp) ****
Finished Guess after   0.3 sec
Maximum memory used throughout the entire GUESS-calculation: 5.4 MB


           ************************************************************
           *        Program running with 4 parallel MPI-processes     *
           *              working on a common directory               *
           ************************************************************

-------------------------------------------------------------------------------------------
                                      ORCA LEAN-SCF
                              memory conserving SCF solver
-------------------------------------------------------------------------------------------

----------------------------------------D-I-I-S--------------------------------------------
Iteration    Energy (Eh)           Delta-E    RMSDP     MaxDP     DIISErr   Damp  Time(sec)
-------------------------------------------------------------------------------------------
               ***  Starting incremental Fock matrix formation  ***
    1    -56.3888314756655973     0.00e+00  1.32e-02  1.10e-01  2.75e-01  0.700   0.0
    2    -56.4443676488119195    -5.55e-02  8.40e-03  7.07e-02  1.13e-01  0.700   0.0
                               ***Turning on AO-DIIS***
    3    -56.4613359057275090    -1.70e-02  2.40e-03  1.49e-02  2.06e-02  0.700   0.0
    4    -56.4717863499322732    -1.05e-02  2.57e-03  2.13e-02  6.58e-03  0.000   0.0
    5    -56.4964734474714732    -2.47e-02  1.22e-03  1.09e-02  8.89e-03  0.000   0.0
                              *** Initializing SOSCF ***
---------------------------------------S-O-S-C-F--------------------------------------
Iteration    Energy (Eh)           Delta-E    RMSDP     MaxDP     MaxGrad    Time(sec)
--------------------------------------------------------------------------------------
    6    -56.4966397176080903    -1.66e-04  4.22e-04  4.30e-03  1.56e-03     0.0
               *** Restarting incremental Fock matrix formation ***
    7    -56.4966504770129063    -1.08e-05  3.10e-04  3.75e-03  4.24e-04     0.0
    8    -56.4966513731928615    -8.96e-07  6.39e-05  6.45e-04  2.59e-04     0.0
    9    -56.4966517013222500    -3.28e-07  6.34e-05  6.33e-04  1.61e-04     0.0
   10    -56.4966518505516433    -1.49e-07  1.04e-05  1.16e-04  1.53e-05     0.0
   11    -56.4966518524534109    -1.90e-09  8.23e-07  9.06e-06  1.59e-06     0.0
                 **** Energy Check signals convergence ****

               *****************************************************
               *                     SUCCESS                       *
               *           SCF CONVERGED AFTER  11 CYCLES          *
               *****************************************************

             **** ENERGY FILE WAS UPDATED (opt.en.tmp) ****

----------------
TOTAL SCF ENERGY
----------------

Total Energy       :        -56.49665185245341 Eh           -1537.35205 eV

Components:
Nuclear Repulsion  :         12.23527575161489 Eh             332.93878 eV
Electronic Energy  :        -68.73192760406830 Eh           -1870.29083 eV
One Electron Energy:       -100.05277404665982 Eh           -2722.57439 eV
Two Electron Energy:         31.32084644259152 Eh             852.28356 eV

Virial components:
Potential Energy   :       -112.66157850815728 Eh           -3065.67741 eV
Kinetic Energy     :         56.16492665570387 Eh            1528.32535 eV
Virial Ratio       :          2.00590626956184

DFT components:
N(Alpha)           :        5.000013243271 electrons
N(Beta)            :        5.000013243271 electrons
N(Total)           :       10.000026486541 electrons
E(X)               :       -7.740689972385 Eh       
E(C)               :       -0.322691292092 Eh       
E(XC)              :       -8.063381264477 Eh       

---------------
SCF CONVERGENCE
---------------

  Last Energy change         ...    1.9018e-09  Tolerance :   1.0000e-08
  Last MAX-Density change    ...    9.0619e-06  Tolerance :   1.0000e-07
  Last RMS-Density change    ...    8.2280e-07  Tolerance :   5.0000e-09
  Last DIIS Error            ...    1.5558e-03  Tolerance :   5.0000e-07
  Last Orbital Gradient      ...    1.5890e-06  Tolerance :   1.0000e-05
  Last Orbital Rotation      ...    4.1070e-06  Tolerance :   1.0000e-05


----------------
ORBITAL ENERGIES
----------------

  NO   OCC          E(Eh)            E(eV) 
   0   2.0000     -14.092670      -383.4811 
   1   2.0000      -0.814839       -22.1729 
   2   2.0000      -0.390211       -10.6182 
   3   2.0000      -0.390211       -10.6182 
   4   2.0000      -0.251922        -6.8551 
   5   0.0000       0.038189         1.0392 
   6   0.0000       0.126251         3.4355 
   7   0.0000       0.126251         3.4355 
   8   0.0000       0.476667        12.9708 
   9   0.0000       0.476667        12.9708 
  10   0.0000       0.651731        17.7345 
  11   0.0000       0.709001        19.2929 
  12   0.0000       0.823604        22.4114 
  13   0.0000       0.823604        22.4114 
  14   0.0000       1.075908        29.2770 
  15   0.0000       1.106010        30.0961 
*Only the first 10 virtual orbitals were printed.

                    ********************************
                    * MULLIKEN POPULATION ANALYSIS *
                    ********************************

-----------------------
MULLIKEN ATOMIC CHARGES
-----------------------
   0 N :   -0.108448
   1 H :    0.036149
   2 H :    0.036149
   3 H :    0.036149
Sum of atomic charges:   -0.0000000

--------------------------------
MULLIKEN REDUCED ORBITAL CHARGES
--------------------------------
  0 N s       :     3.482340  s :     3.482340
      pz      :     1.200270  p :     3.600811
      px      :     1.200270
      py      :     1.200270
      dz2     :     0.011138  d :     0.025297
      dxz     :     0.001007
      dyz     :     0.001007
      dx2y2   :     0.011138
      dxy     :     0.001007

  1 H s       :     0.913513  s :     0.913513
      pz      :     0.021913  p :     0.050337
      px      :     0.014212
      py      :     0.014212

  2 H s       :     0.913513  s :     0.913513
      pz      :     0.014212  p :     0.050337
      px      :     0.014212
      py      :     0.021913

  3 H s       :     0.913513  s :     0.913513
      pz      :     0.014212  p :     0.050337
      px      :     0.021913
      py      :     0.014212



                     *******************************
                     * LOEWDIN POPULATION ANALYSIS *
                     *******************************

----------------------
LOEWDIN ATOMIC CHARGES
----------------------
   0 N :   -0.149237
   1 H :    0.049746
   2 H :    0.049746
   3 H :    0.049746

-------------------------------
LOEWDIN REDUCED ORBITAL CHARGES
-------------------------------
  0 N s       :     3.229750  s :     3.229750
      pz      :     1.291040  p :     3.873121
      px      :     1.291040
      py      :     1.291040
      dz2     :     0.022621  d :     0.046365
      dxz     :     0.000374
      dyz     :     0.000374
      dx2y2   :     0.022621
      dxy     :     0.000374

  1 H s       :     0.821809  s :     0.821809
      pz      :     0.062625  p :     0.128445
      px      :     0.032910
      py      :     0.032910

  2 H s       :     0.821809  s :     0.821809
      pz      :     0.032910  p :     0.128445
      px      :     0.032910
      py      :     0.062625

  3 H s       :     0.821809  s :     0.821809
      pz      :     0.032910  p :     0.128445
      px      :     0.062625
      py      :     0.032910



                      *****************************
                      * MAYER POPULATION ANALYSIS *
                      *****************************

  NA   - Mulliken gross atomic population
  ZA   - Total nuclear charge
  QA   - Mulliken gross atomic charge
  VA   - Mayer's total valence
  BVA  - Mayer's bonded valence
  FA   - Mayer's free valence

  ATOM       NA         ZA         QA         VA         BVA        FA
  0 N      7.1084     7.0000    -0.1084     2.9436     2.9436    -0.0000
  1 H      0.9639     1.0000     0.0361     1.0007     1.0007    -0.0000
  2 H      0.9639     1.0000     0.0361     1.0007     1.0007    -0.0000
  3 H      0.9639     1.0000     0.0361     1.0007     1.0007     0.0000

  Mayer bond orders larger than 0.100000
B(  0-N ,  1-H ) :   0.9812 B(  0-N ,  2-H ) :   0.9812 B(  0-N ,  3-H ) :   0.9812 


-------
TIMINGS
-------

Total SCF time: 0 days 0 hours 0 min 0 sec 

Total time                  ....       0.462 sec
Sum of individual times     ....       0.453 sec  ( 98.2%)

SCF preparation             ....       0.319 sec  ( 69.0%)
Fock matrix formation       ....       0.117 sec  ( 25.3%)
  Startup                   ....       0.001 sec  (  1.2% of F)
  Split-RI-J                ....       0.009 sec  (  7.7% of F)
  XC integration            ....       0.101 sec  ( 86.1% of F)
    Basis function eval.    ....       0.018 sec  ( 18.0% of XC)
    Density eval.           ....       0.025 sec  ( 24.6% of XC)
    XC-Functional eval.     ....       0.026 sec  ( 25.8% of XC)
    XC-Potential eval.      ....       0.017 sec  ( 16.6% of XC)
Diagonalization             ....       0.000 sec  (  0.0%)
Density matrix formation    ....       0.002 sec  (  0.4%)
Total Energy calculation    ....       0.002 sec  (  0.4%)
Population analysis         ....       0.002 sec  (  0.4%)
Orbital Transformation      ....       0.001 sec  (  0.3%)
Orbital Orthonormalization  ....       0.000 sec  (  0.0%)
DIIS solution               ....       0.008 sec  (  1.6%)
SOSCF solution              ....       0.003 sec  (  0.7%)
Finished LeanSCF after   0.5 sec

Maximum memory used throughout the entire LEANSCF-calculation: 5.0 MB

-------------------------   --------------------
FINAL SINGLE POINT ENERGY       -56.496651852453
-------------------------   --------------------



           ************************************************************
           *        Program running with 4 parallel MPI-processes     *
           *              working on a common directory               *
           ************************************************************
------------------------------------------------------------------------------
                         ORCA SCF GRADIENT CALCULATION
------------------------------------------------------------------------------

Nuc. rep. gradient        (SHARK) ... done (  0.0 sec)
HCore & Overlap gradient  (SHARK) ... done (  0.0 sec)
Split-RIJ-J gradient      (SHARK) ... done (  0.0 sec)
XC gradient                       ... done (  0.0 sec)

------------------
CARTESIAN GRADIENT
------------------

   1   N   :    0.002221911    0.002221911    0.002221911
   2   H   :    0.019189532    0.019189532   -0.040600974
   3   H   :    0.019189532   -0.040600974    0.019189532
   4   H   :   -0.040600974    0.019189532    0.019189532

Difference to translation invariance:
           :    0.0000000000    0.0000000000   -0.0000000000

Difference to rotation invariance:
           :    0.0000000001    0.0000000001    0.0000000000

Norm of the Cartesian gradient     ...    0.0846732350
RMS gradient                       ...    0.0244430575
MAX gradient                       ...    0.0406009741

-------
TIMINGS
-------

Total SCF gradient time     ....        0.073 sec

Densities                   ....       0.000 sec  (  0.0%)
One electron gradient       ....       0.002 sec  (  3.1%)
RI-J Coulomb gradient       ....       0.045 sec  ( 62.5%)
XC gradient                 ....       0.024 sec  ( 33.4%)

Maximum memory used throughout the entire SCFGRAD-calculation: 5.7 MB
------------------------------------------------------------------------------
                         ORCA GEOMETRY RELAXATION STEP
------------------------------------------------------------------------------

Reading the OPT-File                    .... done
Getting information on internals        .... done
Copying old internal coords+grads       .... done
Making the new internal coordinates     .... (2022 redundants) done
Validating the new internal coordinates .... (2022 redundants) done
Calculating the B-matrix                .... done
Calculating the G,G- and P matrices     .... done
Transforming gradient to internals      .... done
Projecting the internal gradient        .... done
Number of atoms                         ....   4
Number of internal coordinates          ....   6
Current Energy                          ....   -56.496651852 Eh
Current gradient norm                   ....     0.084673235 Eh/bohr
Maximum allowed component of the step   ....  0.300
Current trust radius                    ....  0.300
Evaluating the initial hessian          ....  (Almloef) done
Projecting the Hessian                  .... done
Forming the augmented Hessian           .... done
Diagonalizing the augmented Hessian     .... done
Last element of RFO vector              ....  0.971912878
Lowest eigenvalues of augmented Hessian:
 -0.022470594  0.306849966  0.306849966  0.317940697  0.448899677
Length of the computed step             ....  0.242142009
The final length of the internal step   ....  0.242142009
Converting the step to Cartesian space:
 Initial RMS(Int)=    0.0988540613
Transforming coordinates:
 Iter   0:  RMS(Cart)=    0.0796098260 RMS(Int)=    0.0970227112
 Iter   5:  RMS(Cart)=    0.0000001093 RMS(Int)=    0.0000002125
done
Storing new coordinates                 .... done

                                .--------------------.
          ----------------------|Geometry convergence|-------------------------
          Item                value                   Tolerance       Converged
          ---------------------------------------------------------------------
          RMS gradient        0.0384931250            0.0001000000      NO
          MAX gradient        0.0406009741            0.0003000000      NO
          RMS step            0.0988540613            0.0020000000      NO
          MAX step            0.1101144721            0.0040000000      NO
          ........................................................
          Max(Bonds)      0.0456      Max(Angles)    6.31
          Max(Dihed)        0.00      Max(Improp)    0.00
          ---------------------------------------------------------------------

The optimization has not yet converged - more geometry cycles are needed


    ---------------------------------------------------------------------------
                         Redundant Internal Coordinates
                            (Angstroem and degrees)

        Definition                    Value    dE/dq     Step     New-Value
    ----------------------------------------------------------------------------
     1. B(H   1,N   0)                1.0000 -0.040601  0.0456    1.0456   
     2. B(H   2,N   0)                1.0000 -0.040601  0.0456    1.0456   
     3. B(H   3,N   0)                1.0000 -0.040601  0.0456    1.0456   
     4. A(H   1,N   0,H   3)           90.00 -0.036263    6.31     96.31   
     5. A(H   2,N   0,H   3)           90.00 -0.036263    6.31     96.31   
     6. A(H   1,N   0,H   2)           90.00 -0.036263    6.31     96.31   
    ----------------------------------------------------------------------------

Geometry step timings:
Preparation and reading OPT file:      0.000 s (12.925 %)
Internal coordinates            :      0.000 s ( 3.401 %)
B/P matrices and projection     :      0.000 s (15.873 %)
Hessian update/contruction      :      0.000 s (20.181 %)
Making the step                 :      0.000 s (11.111 %)
Converting the step to Cartesian:      0.000 s ( 7.029 %)
Storing new data                :      0.000 s ( 4.082 %)
Checking convergence            :      0.000 s ( 0.227 %)
Final printing                  :      0.000 s (24.717 %)
Total time                      :      0.000 s

Time for energy+gradient        :      2.144 s
Time for complete geometry iter :      2.675 s

         *************************************************************
         *                GEOMETRY OPTIMIZATION CYCLE   2            *
         *************************************************************
---------------------------------
CARTESIAN COORDINATES (ANGSTROEM)
---------------------------------
  N      0.019110    0.019110    0.019110
  H     -0.040215   -0.040215    1.061319
  H     -0.040215    1.061319   -0.040215
  H      1.061319   -0.040215   -0.040215

----------------------------
CARTESIAN COORDINATES (A.U.)
----------------------------
  NO LB      ZA    FRAG     MASS         X           Y           Z
   0 N     7.0000    0    14.007    0.036113    0.036113    0.036113
   1 H     1.0000    0     1.008   -0.075995   -0.075995    2.005602
   2 H     1.0000    0     1.008   -0.075995    2.005602   -0.075995
   3 H     1.0000    0     1.008    2.005602   -0.075995   -0.075995

--------------------------------
INTERNAL COORDINATES (ANGSTROEM)
--------------------------------
 N      0   0   0     0.000000000000     0.00000000     0.00000000
 H      1   0   0     1.045580111473     0.00000000     0.00000000
 H      1   2   0     1.045580111421    96.30909455     0.00000000
 H      1   2   3     1.045580111492    96.30909455    97.09178971

---------------------------
INTERNAL COORDINATES (A.U.)
---------------------------
 N      0   0   0     0.000000000000     0.00000000     0.00000000
 H      1   0   0     1.975860061760     0.00000000     0.00000000
 H      1   2   0     1.975860061661    96.30909455     0.00000000
 H      1   2   3     1.975860061794    96.30909455    97.09178971



           ************************************************************
           *        Program running with 4 parallel MPI-processes     *
           *              working on a common directory               *
           ************************************************************
------------------------------------------------------------------------------
                   ___                                                        
                  /   \      - P O W E R E D   B Y -                         
                 /     \                                                     
                 |  |  |   _    _      __       _____    __    __             
                 |  |  |  | |  | |    /  \     |  _  \  |  |  /  |          
                  \  \/   | |  | |   /    \    | | | |  |  | /  /          
                 / \  \   | |__| |  /  /\  \   | |_| |  |  |/  /          
                |  |  |   |  __  | /  /__\  \  |    /   |      \           
                |  |  |   | |  | | |   __   |  |    \   |  |\   \          
                \     /   | |  | | |  |  |  |  | |\  \  |  | \   \       
                 \___/    |_|  |_| |__|  |__|  |_| \__\ |__|  \__/        
                                                                              
                      - O R C A' S   B I G   F R I E N D -                    
                                      &                                       
                       - I N T E G R A L  F E E D E R -                       
                                                                              
 v1 FN, 2020, v2 2021, v3 2022-2024                                           
------------------------------------------------------------------------------


----------------------
SHARK INTEGRAL PACKAGE
----------------------

Number of atoms                             ...      4
Number of basis functions                   ...     29
Number of shells                            ...     15
Maximum angular momentum                    ...      2
Integral batch strategy                     ... SHARK/LIBINT Hybrid
RI-J (if used) integral strategy            ... SPLIT-RIJ (Revised 2003 algorithm where possible)
Printlevel                                  ...      1
Contraction scheme used                     ... SEGMENTED contraction
Prescreening option                         ... SCHWARTZ
   Thresh                                   ... 2.500e-11
   Tcut                                     ... 2.500e-12
   Tpresel                                  ... 2.500e-12 
Coulomb Range Separation                    ... NOT USED
Exchange Range Separation                   ... NOT USED
Multipole approximations                    ... NOT USED
Finite Nucleus Model                        ... NOT USED
CABS basis                                  ... NOT available
Auxiliary Coulomb fitting basis             ... AVAILABLE
   # of basis functions in Aux-J            ...     82
   # of shells in Aux-J                     ...     30
   Maximum angular momentum in Aux-J        ...      4
Auxiliary J/K fitting basis                 ... NOT available
Auxiliary Correlation fitting basis         ... NOT available
Auxiliary 'external' fitting basis          ... NOT available

Checking pre-screening integrals            ... done (  0.0 sec) Dimension = 15
Check shell pair data                       ... done (  0.0 sec)
Shell pair information
Shell pair cut-off parameter TPreSel        ...   2.5e-12
Total number of shell pairs                 ...       120
Shell pairs after pre-screening             ...       120
Total number of primitive shell pairs       ...       400
Primitive shell pairs kept                  ...       388
          la=0 lb=0:     45 shell pairs
          la=1 lb=0:     45 shell pairs
          la=1 lb=1:     15 shell pairs
          la=2 lb=0:      9 shell pairs
          la=2 lb=1:      5 shell pairs
          la=2 lb=2:      1 shell pairs

Calculating one electron integrals          ... done (  0.0 sec)
Calculating RI/J V-Matrix + Cholesky decomp.... done (  0.0 sec)
Calculating Nuclear repulsion               ... done (  0.0 sec) ENN=     11.647366378613 Eh

Diagonalization of the overlap matrix:
Smallest eigenvalue                        ... 2.527e-02
Time for diagonalization                   ...    0.000 sec
Threshold for overlap eigenvalues          ... 1.000e-07
Number of eigenvalues below threshold      ... 0
Time for construction of square roots      ...    0.000 sec
Total time needed                          ...    0.000 sec

-------------------
DFT GRID GENERATION
-------------------

General Integration Accuracy     IntAcc      ... 4.388
Radial Grid Type                 RadialGrid  ... OptM3 with GC (2021)
Angular Grid (max. ang.)         AngularGrid ... 4 (Lebedev-302)
Angular grid pruning method      GridPruning ... 4 (adaptive)
Weight generation scheme         WeightScheme... mBecke (2022)
Basis function cutoff            BFCut       ... 1.0000e-11
Integration weight cutoff        WCut        ... 1.0000e-14
Partially contracted basis set               ... off
Rotationally invariant grid construction     ... off
Angular grids for H and He will be reduced by one unit

Total number of grid points                  ...    15985
Total number of batches                      ...      251
Average number of points per batch           ...       63
Average number of grid points per atom       ...     3996
Initializing property integral containers    ... done (  0.0 sec)

SHARK setup successfully completed in   0.1 seconds

Maximum memory used throughout the entire STARTUP-calculation: 8.7 MB


           ************************************************************
           *        Program running with 4 parallel MPI-processes     *
           *              working on a common directory               *
           ************************************************************
Occupation numbers will be reassigned to an Aufbau configuration
             **** ENERGY FILE WAS UPDATED (opt.en.tmp) ****
Finished Guess after   0.3 sec
Maximum memory used throughout the entire GUESS-calculation: 5.4 MB


           ************************************************************
           *        Program running with 4 parallel MPI-processes     *
           *              working on a common directory               *
           ************************************************************
----------------------------------------D-I-I-S--------------------------------------------
Iteration    Energy (Eh)           Delta-E    RMSDP     MaxDP     DIISErr   Damp  Time(sec)
-------------------------------------------------------------------------------------------
               ***  Starting incremental Fock matrix formation  ***
    1    -56.5061629092782596     0.00e+00  2.40e-03  1.71e-02  1.32e-02  0.700   0.0
    2    -56.5071627752470533    -1.00e-03  1.92e-03  1.33e-02  9.81e-03  0.700   0.0
                               ***Turning on AO-DIIS***
    3    -56.5078692570683643    -7.06e-04  1.39e-03  1.04e-02  6.95e-03  0.700   0.0
    4    -56.5083595471864015    -4.90e-04  3.23e-03  2.24e-02  4.89e-03  0.000   0.0
                              *** Initializing SOSCF ***
---------------------------------------S-O-S-C-F--------------------------------------
Iteration    Energy (Eh)           Delta-E    RMSDP     MaxDP     MaxGrad    Time(sec)
--------------------------------------------------------------------------------------
    5    -56.5095075259907134    -1.15e-03  8.38e-05  8.36e-04  5.01e-04     0.0
               *** Restarting incremental Fock matrix formation ***
    6    -56.5095078210104873    -2.95e-07  7.57e-05  7.12e-04  2.09e-04     0.0
    7    -56.5095075002369640     3.21e-07  5.50e-05  4.87e-04  3.40e-04     0.0
    8    -56.5095080538671652    -5.54e-07  2.12e-06  1.83e-05  3.86e-06     0.0
    9    -56.5095080540136649    -1.46e-10  2.22e-07  1.35e-06  1.10e-06     0.0
                 **** Energy Check signals convergence ****

               *****************************************************
               *                     SUCCESS                       *
               *           SCF CONVERGED AFTER   9 CYCLES          *
               *****************************************************

             **** ENERGY FILE WAS UPDATED (opt.en.tmp) ****

----------------
TOTAL SCF ENERGY
----------------

Total Energy       :        -56.50950805401366 Eh           -1537.70189 eV

Components:
Nuclear Repulsion  :         11.64736637861292 Eh             316.94095 eV
Electronic Energy  :        -68.15687443262658 Eh           -1854.64284 eV
One Electron Energy:        -99.02845474008046 Eh           -2694.70125 eV
Two Electron Energy:         30.87158030745389 Eh             840.05841 eV

Virial components:
Potential Energy   :       -112.44381310583336 Eh           -3059.75171 eV
Kinetic Energy     :         55.93430505181969 Eh            1522.04982 eV
Virial Ratio       :          2.01028354605749

DFT components:
N(Alpha)           :        5.000008608152 electrons
N(Beta)            :        5.000008608152 electrons
N(Total)           :       10.000017216303 electrons
E(X)               :       -7.686954710750 Eh       
E(C)               :       -0.319421331707 Eh       
E(XC)              :       -8.006376042457 Eh       

---------------
SCF CONVERGENCE
---------------

  Last Energy change         ...    1.4650e-10  Tolerance :   1.0000e-08
  Last MAX-Density change    ...    1.3505e-06  Tolerance :   1.0000e-07
  Last RMS-Density change    ...    2.2228e-07  Tolerance :   5.0000e-09
  Last DIIS Error            ...    5.0055e-04  Tolerance :   5.0000e-07
  Last Orbital Gradient      ...    1.1046e-06  Tolerance :   1.0000e-05
  Last Orbital Rotation      ...    8.2480e-07  Tolerance :   1.0000e-05


Total SCF time: 0 days 0 hours 0 min 0 sec 
Finished LeanSCF after   0.4 sec

Maximum memory used throughout the entire LEANSCF-calculation: 5.2 MB

-------------------------   --------------------
FINAL SINGLE POINT ENERGY       -56.509508054014
-------------------------   --------------------



           ************************************************************
           *        Program running with 4 parallel MPI-processes     *
           *              working on a common directory               *
           ************************************************************
------------------------------------------------------------------------------
                         ORCA SCF GRADIENT CALCULATION
------------------------------------------------------------------------------

Nuc. rep. gradient        (SHARK) ... done (  0.0 sec)
HCore & Overlap gradient  (SHARK) ... done (  0.0 sec)
Split-RIJ-J gradient      (SHARK) ... done (  0.0 sec)
XC gradient                       ... done (  0.0 sec)

------------------
CARTESIAN GRADIENT
------------------

   1   N   :   -0.019438325   -0.019438325   -0.019438325
   2   H   :    0.007039627    0.007039627    0.005359071
   3   H   :    0.007039627    0.005359071    0.007039627
   4   H   :    0.005359071    0.007039627    0.007039627

Difference to translation invariance:
           :   -0.0000000000   -0.0000000000    0.0000000000

Difference to rotation invariance:
           :    0.0000000000    0.0000000001   -0.0000000000

Norm of the Cartesian gradient     ...    0.0389492291
RMS gradient                       ...    0.0112436740
MAX gradient                       ...    0.0194383250

-------
TIMINGS
-------

Total SCF gradient time     ....        0.069 sec

Densities                   ....       0.000 sec  (  0.0%)
One electron gradient       ....       0.002 sec  (  3.0%)
RI-J Coulomb gradient       ....       0.045 sec  ( 65.3%)
XC gradient                 ....       0.022 sec  ( 31.5%)

Maximum memory used throughout the entire SCFGRAD-calculation: 5.7 MB
------------------------------------------------------------------------------
                         ORCA GEOMETRY RELAXATION STEP
------------------------------------------------------------------------------

Reading the OPT-File                    .... done
Getting information on internals        .... done
Copying old internal coords+grads       .... done
Making the new internal coordinates     .... (2022 redundants) done
Validating the new internal coordinates .... (2022 redundants) done
Calculating the B-matrix                .... done
Calculating the G,G- and P matrices     .... done
Transforming gradient to internals      .... done
Projecting the internal gradient        .... done
Number of atoms                         ....   4
Number of internal coordinates          ....   6
Current Energy                          ....   -56.509508054 Eh
Current gradient norm                   ....     0.038949229 Eh/bohr
Maximum allowed component of the step   ....  0.300
Current trust radius                    ....  0.300
Updating the Hessian (BFGS)             .... done
Forming the augmented Hessian           .... done
Diagonalizing the augmented Hessian     .... done
Last element of RFO vector              ....  0.992671743
Lowest eigenvalues of augmented Hessian:
 -0.003305585  0.215022742  0.306849966  0.306849966  0.448899677
Length of the computed step             ....  0.121734191
The final length of the internal step   ....  0.121734191
Converting the step to Cartesian space:
 Initial RMS(Int)=    0.0496977755
Transforming coordinates:
 Iter   0:  RMS(Cart)=    0.0340071668 RMS(Int)=    0.0483664518
 Iter   5:  RMS(Cart)=    0.0000000102 RMS(Int)=    0.0000000169
done
Storing new coordinates                 .... done
The predicted energy change is          ....    -0.001677285
Previously predicted energy change      ....    -0.011894054
Actually observed energy change         ....    -0.012856202
Ratio of predicted to observed change   ....     1.080893193
New trust radius                        ....     0.450000000

                                .--------------------.
          ----------------------|Geometry convergence|-------------------------
          Item                value                   Tolerance       Converged
          ---------------------------------------------------------------------
          Energy change      -0.0128562016            0.0000050000      NO
          RMS gradient        0.0113875765            0.0001000000      NO
          MAX gradient        0.0154504165            0.0003000000      NO
          RMS step            0.0496977755            0.0020000000      NO
          MAX step            0.0701763123            0.0040000000      NO
          ........................................................
          Max(Bonds)      0.0021      Max(Angles)    4.02
          Max(Dihed)        0.00      Max(Improp)    0.00
          ---------------------------------------------------------------------

The optimization has not yet converged - more geometry cycles are needed


    ---------------------------------------------------------------------------
                         Redundant Internal Coordinates
                            (Angstroem and degrees)

        Definition                    Value    dE/dq     Step     New-Value
    ----------------------------------------------------------------------------
     1. B(H   1,N   0)                1.0456  0.004543 -0.0021    1.0435   
     2. B(H   2,N   0)                1.0456  0.004543 -0.0021    1.0435   
     3. B(H   3,N   0)                1.0456  0.004543 -0.0021    1.0435   
     4. A(H   1,N   0,H   3)           96.31 -0.015450    4.02    100.33   
     5. A(H   2,N   0,H   3)           96.31 -0.015450    4.02    100.33   
     6. A(H   1,N   0,H   2)           96.31 -0.015450    4.02    100.33   
    ----------------------------------------------------------------------------

Geometry step timings:
Preparation and reading OPT file:      0.000 s (11.200 %)
Internal coordinates            :      0.000 s ( 2.667 %)
B/P matrices and projection     :      0.000 s (14.133 %)
Hessian update/contruction      :      0.000 s (21.067 %)
Making the step                 :      0.000 s ( 5.867 %)
Converting the step to Cartesian:      0.000 s ( 3.200 %)
Storing new data                :      0.000 s ( 2.667 %)
Checking convergence            :      0.000 s ( 1.333 %)
Final printing                  :      0.000 s (37.333 %)
Total time                      :      0.000 s

Time for energy+gradient        :      2.134 s
Time for complete geometry iter :      2.613 s

         *************************************************************
         *                GEOMETRY OPTIMIZATION CYCLE   3            *
         *************************************************************
---------------------------------
CARTESIAN COORDINATES (ANGSTROEM)
---------------------------------
  N      0.041071    0.041071    0.041071
  H     -0.058102   -0.058102    1.075132
  H     -0.058102    1.075132   -0.058102
  H      1.075132   -0.058102   -0.058102

----------------------------
CARTESIAN COORDINATES (A.U.)
----------------------------
  NO LB      ZA    FRAG     MASS         X           Y           Z
   0 N     7.0000    0    14.007    0.077613    0.077613    0.077613
   1 H     1.0000    0     1.008   -0.109796   -0.109796    2.031706
   2 H     1.0000    0     1.008   -0.109796    2.031706   -0.109796
   3 H     1.0000    0     1.008    2.031706   -0.109796   -0.109796

--------------------------------
INTERNAL COORDINATES (ANGSTROEM)
--------------------------------
 N      0   0   0     0.000000000000     0.00000000     0.00000000
 H      1   0   0     1.043529046976     0.00000000     0.00000000
 H      1   2   0     1.043529047059   100.32990102     0.00000000
 H      1   2   3     1.043529047027   100.32990100   102.62066859

---------------------------
INTERNAL COORDINATES (A.U.)
---------------------------
 N      0   0   0     0.000000000000     0.00000000     0.00000000
 H      1   0   0     1.971984111577     0.00000000     0.00000000
 H      1   2   0     1.971984111733   100.32990102     0.00000000
 H      1   2   3     1.971984111673   100.32990100   102.62066859



           ************************************************************
           *        Program running with 4 parallel MPI-processes     *
           *              working on a common directory               *
           ************************************************************
------------------------------------------------------------------------------
                   ___                                                        
                  /   \      - P O W E R E D   B Y -                         
                 /     \                                                     
                 |  |  |   _    _      __       _____    __    __             
                 |  |  |  | |  | |    /  \     |  _  \  |  |  /  |          
                  \  \/   | |  | |   /    \    | | | |  |  | /  /          
                 / \  \   | |__| |  /  /\  \   | |_| |  |  |/  /          
                |  |  |   |  __  | /  /__\  \  |    /   |      \           
                |  |  |   | |  | | |   __   |  |    \   |  |\   \          
                \     /   | |  | | |  |  |  |  | |\  \  |  | \   \       
                 \___/    |_|  |_| |__|  |__|  |_| \__\ |__|  \__/        
                                                                              
                      - O R C A' S   B I G   F R I E N D -                    
                                      &                                       
                       - I N T E G R A L  F E E D E R -                       
                                                                              
 v1 FN, 2020, v2 2021, v3 2022-2024                                           
------------------------------------------------------------------------------


----------------------
SHARK INTEGRAL PACKAGE
----------------------

Number of atoms                             ...      4
Number of basis functions                   ...     29
Number of shells                            ...     15
Maximum angular momentum                    ...      2
Integral batch strategy                     ... SHARK/LIBINT Hybrid
RI-J (if used) integral strategy            ... SPLIT-RIJ (Revised 2003 algorithm where possible)
Printlevel                                  ...      1
Contraction scheme used                     ... SEGMENTED contraction
Prescreening option                         ... SCHWARTZ
   Thresh                                   ... 2.500e-11
   Tcut                                     ... 2.500e-12
   Tpresel                                  ... 2.500e-12 
Coulomb Range Separation                    ... NOT USED
Exchange Range Separation                   ... NOT USED
Multipole approximations                    ... NOT USED
Finite Nucleus Model                        ... NOT USED
CABS basis                                  ... NOT available
Auxiliary Coulomb fitting basis             ... AVAILABLE
   # of basis functions in Aux-J            ...     82
   # of shells in Aux-J                     ...     30
   Maximum angular momentum in Aux-J        ...      4
Auxiliary J/K fitting basis                 ... NOT available
Auxiliary Correlation fitting basis         ... NOT available
Auxiliary 'external' fitting basis          ... NOT available

Checking pre-screening integrals            ... done (  0.0 sec) Dimension = 15
Check shell pair data                       ... done (  0.0 sec)
Shell pair information
Shell pair cut-off parameter TPreSel        ...   2.5e-12
Total number of shell pairs                 ...       120
Shell pairs after pre-screening             ...       120
Total number of primitive shell pairs       ...       400
Primitive shell pairs kept                  ...       388
          la=0 lb=0:     45 shell pairs
          la=1 lb=0:     45 shell pairs
          la=1 lb=1:     15 shell pairs
          la=2 lb=0:      9 shell pairs
          la=2 lb=1:      5 shell pairs
          la=2 lb=2:      1 shell pairs

Calculating one electron integrals          ... done (  0.0 sec)
Calculating RI/J V-Matrix + Cholesky decomp.... done (  0.0 sec)
Calculating Nuclear repulsion               ... done (  0.0 sec) ENN=     11.639749049813 Eh

Diagonalization of the overlap matrix:
Smallest eigenvalue                        ... 2.710e-02
Time for diagonalization                   ...    0.000 sec
Threshold for overlap eigenvalues          ... 1.000e-07
Number of eigenvalues below threshold      ... 0
Time for construction of square roots      ...    0.000 sec
Total time needed                          ...    0.000 sec

-------------------
DFT GRID GENERATION
-------------------

General Integration Accuracy     IntAcc      ... 4.388
Radial Grid Type                 RadialGrid  ... OptM3 with GC (2021)
Angular Grid (max. ang.)         AngularGrid ... 4 (Lebedev-302)
Angular grid pruning method      GridPruning ... 4 (adaptive)
Weight generation scheme         WeightScheme... mBecke (2022)
Basis function cutoff            BFCut       ... 1.0000e-11
Integration weight cutoff        WCut        ... 1.0000e-14
Partially contracted basis set               ... off
Rotationally invariant grid construction     ... off
Angular grids for H and He will be reduced by one unit

Total number of grid points                  ...    15994
Total number of batches                      ...      252
Average number of points per batch           ...       63
Average number of grid points per atom       ...     3998
Initializing property integral containers    ... done (  0.0 sec)

SHARK setup successfully completed in   0.1 seconds

Maximum memory used throughout the entire STARTUP-calculation: 8.7 MB


           ************************************************************
           *        Program running with 4 parallel MPI-processes     *
           *              working on a common directory               *
           ************************************************************
Occupation numbers will be reassigned to an Aufbau configuration
             **** ENERGY FILE WAS UPDATED (opt.en.tmp) ****
Finished Guess after   0.3 sec
Maximum memory used throughout the entire GUESS-calculation: 5.4 MB


           ************************************************************
           *        Program running with 4 parallel MPI-processes     *
           *              working on a common directory               *
           ************************************************************
----------------------------------------D-I-I-S--------------------------------------------
Iteration    Energy (Eh)           Delta-E    RMSDP     MaxDP     DIISErr   Damp  Time(sec)
-------------------------------------------------------------------------------------------
               ***  Starting incremental Fock matrix formation  ***
    1    -56.5110220676812247     0.00e+00  1.20e-03  1.15e-02  8.32e-03  0.700   0.0
    2    -56.5112755969184235    -2.54e-04  1.05e-03  1.00e-02  6.24e-03  0.700   0.0
                               ***Turning on AO-DIIS***
    3    -56.5114603439405698    -1.85e-04  7.71e-04  7.21e-03  4.43e-03  0.700   0.0
                              *** Initializing SOSCF ***
---------------------------------------S-O-S-C-F--------------------------------------
Iteration    Energy (Eh)           Delta-E    RMSDP     MaxDP     MaxGrad    Time(sec)
--------------------------------------------------------------------------------------
    4    -56.5115889884660163    -1.29e-04  1.88e-03  1.83e-02  3.12e-03     0.0
               *** Restarting incremental Fock matrix formation ***
    5    -56.5118900055528286    -3.01e-04  9.76e-05  1.17e-03  1.22e-04     0.0
    6    -56.5118900631345156    -5.76e-08  2.02e-05  1.85e-04  1.09e-04     0.0
    7    -56.5118901214203930    -5.83e-08  1.91e-05  1.96e-04  4.38e-05     0.0
    8    -56.5118901313815627    -9.96e-09  4.32e-06  4.64e-05  1.09e-05     0.0
                 **** Energy Check signals convergence ****

               *****************************************************
               *                     SUCCESS                       *
               *           SCF CONVERGED AFTER   8 CYCLES          *
               *****************************************************

             **** ENERGY FILE WAS UPDATED (opt.en.tmp) ****

----------------
TOTAL SCF ENERGY
----------------

Total Energy       :        -56.51189013138156 Eh           -1537.76671 eV

Components:
Nuclear Repulsion  :         11.63974904981344 Eh             316.73367 eV
Electronic Energy  :        -68.15163918119501 Eh           -1854.50038 eV
One Electron Energy:        -99.04440015136358 Eh           -2695.13515 eV
Two Electron Energy:         30.89276097016857 Eh             840.63476 eV

Virial components:
Potential Energy   :       -112.42431662019668 Eh           -3059.22118 eV
Kinetic Energy     :         55.91242648881511 Eh            1521.45447 eV
Virial Ratio       :          2.01072147428061

DFT components:
N(Alpha)           :        5.000007519208 electrons
N(Beta)            :        5.000007519208 electrons
N(Total)           :       10.000015038416 electrons
E(X)               :       -7.688793997801 Eh       
E(C)               :       -0.319426413998 Eh       
E(XC)              :       -8.008220411798 Eh       

---------------
SCF CONVERGENCE
---------------

  Last Energy change         ...    9.9612e-09  Tolerance :   1.0000e-08
  Last MAX-Density change    ...    4.6363e-05  Tolerance :   1.0000e-07
  Last RMS-Density change    ...    4.3246e-06  Tolerance :   5.0000e-09
  Last DIIS Error            ...    3.1176e-03  Tolerance :   5.0000e-07
  Last Orbital Gradient      ...    1.0880e-05  Tolerance :   1.0000e-05
  Last Orbital Rotation      ...    2.0010e-05  Tolerance :   1.0000e-05


Total SCF time: 0 days 0 hours 0 min 0 sec 
Finished LeanSCF after   0.6 sec

Maximum memory used throughout the entire LEANSCF-calculation: 5.3 MB

-------------------------   --------------------
FINAL SINGLE POINT ENERGY       -56.511890131382
-------------------------   --------------------



           ************************************************************
           *        Program running with 4 parallel MPI-processes     *
           *              working on a common directory               *
           ************************************************************
------------------------------------------------------------------------------
                         ORCA SCF GRADIENT CALCULATION
------------------------------------------------------------------------------

Nuc. rep. gradient        (SHARK) ... done (  0.0 sec)
HCore & Overlap gradient  (SHARK) ... done (  0.0 sec)
Split-RIJ-J gradient      (SHARK) ... done (  0.0 sec)
XC gradient                       ... done (  0.0 sec)

------------------
CARTESIAN GRADIENT
------------------

   1   N   :   -0.012113387   -0.012113387   -0.012113387
   2   H   :    0.002265430    0.002265430    0.007582528
   3   H   :    0.002265430    0.007582528    0.002265430
   4   H   :    0.007582528    0.002265430    0.002265430

Difference to translation invariance:
           :   -0.0000000000    0.0000000000    0.0000000000

Difference to rotation invariance:
           :   -0.0000000000   -0.0000000000    0.0000000000

Norm of the Cartesian gradient     ...    0.0253669004
RMS gradient                       ...    0.0073227934
MAX gradient                       ...    0.0121133869

-------
TIMINGS
-------

Total SCF gradient time     ....        0.071 sec

Densities                   ....       0.000 sec  (  0.0%)
One electron gradient       ....       0.002 sec  (  3.2%)
RI-J Coulomb gradient       ....       0.046 sec  ( 64.8%)
XC gradient                 ....       0.023 sec  ( 31.8%)

Maximum memory used throughout the entire SCFGRAD-calculation: 5.7 MB
------------------------------------------------------------------------------
                         ORCA GEOMETRY RELAXATION STEP
------------------------------------------------------------------------------

Reading the OPT-File                    .... done
Getting information on internals        .... done
Copying old internal coords+grads       .... done
Making the new internal coordinates     .... (2022 redundants) done
Validating the new internal coordinates .... (2022 redundants) done
Calculating the B-matrix                .... done
Calculating the G,G- and P matrices     .... done
Transforming gradient to internals      .... done
Projecting the internal gradient        .... done
Number of atoms                         ....   4
Number of internal coordinates          ....   6
Current Energy                          ....   -56.511890131 Eh
Current gradient norm                   ....     0.025366900 Eh/bohr
Maximum allowed component of the step   ....  0.300
Current trust radius                    ....  0.450
Updating the Hessian (BFGS)             .... done
Forming the augmented Hessian           .... done
Diagonalizing the augmented Hessian     .... done
Last element of RFO vector              ....  0.993957204
Lowest eigenvalues of augmented Hessian:
 -0.001625015  0.120802217  0.306849966  0.306849966  0.448899677
Length of the computed step             ....  0.110435627
The final length of the internal step   ....  0.110435627
Converting the step to Cartesian space:
 Initial RMS(Int)=    0.0450851561
Transforming coordinates:
 Iter   0:  RMS(Cart)=    0.0269684736 RMS(Int)=    0.0437425237
done
Storing new coordinates                 .... done
The predicted energy change is          ....    -0.000822417
Previously predicted energy change      ....    -0.001677285
Actually observed energy change         ....    -0.002382077
Ratio of predicted to observed change   ....     1.420198042
New trust radius                        ....     0.450000000

                                .--------------------.
          ----------------------|Geometry convergence|-------------------------
          Item                value                   Tolerance       Converged
          ---------------------------------------------------------------------
          Energy change      -0.0023820774            0.0000050000      NO
          RMS gradient        0.0068530963            0.0001000000      NO
          MAX gradient        0.0070831367            0.0003000000      NO
          RMS step            0.0450851561            0.0020000000      NO
          MAX step            0.0605743649            0.0040000000      NO
          ........................................................
          Max(Bonds)      0.0105      Max(Angles)    3.47
          Max(Dihed)        0.00      Max(Improp)    0.00
[...]
   # of expansion vecs  DIISMaxEq       ....     5
   Bias factor          DIISBfac        ....   1.050
   Max. coefficient     DIISMaxC        ....  10.000
 MO-DIIS                CNVKDIIS        .... off
 Trust-Rad. Augm. Hess. CNVTRAH         .... auto
   Auto Start mean grad. ratio tolernc. ....  1.125000
   Auto Start start iteration           ....     1
   Auto Start num. interpolation iter.  ....    10
   Max. Number of Micro iterations      ....    24
   Max. Number of Macro iterations      .... Maxiter - #DIIS iter
   Number of Davidson start vectors     ....     2
   Converg. threshold    (grad. norm)   ....   1.000e-05
   Grad. Scal. Fac. for Micro threshold ....   0.100
   Minimum threshold for Micro iter.    ....   1.000e-02
   NR start threshold (gradient norm)   ....   1.000e-04
   Initial trust radius                 ....   0.400
   Minimum AH scaling param. (alpha)    ....   1.000
   Maximum AH scaling param. (alpha)    .... 1000.000
   Quad. conv. algorithm                .... NR
   White noise on init. David. guess    .... on
   Maximum white noise                  ....   0.010
   Pseudo random numbers                .... off
   Inactive MOs                         .... canonical
   Orbital update algorithm             .... Taylor
   Preconditioner                       .... Diag
   Full preconditioner red. dimension   ....   250
 SOSCF                  CNVSOSCF        .... on
   Start iteration      SOSCFMaxIt      ....   150
   Startup grad/error   SOSCFStart      ....  0.003300
   Hessian update       SOSCFHessUp     .... L-BFGS
 Level Shifting         CNVShift        .... on
   Level shift para.    LevelShift      ....    0.2500
   Turn off err/grad.   ShiftErr        ....    0.0010
 Zerner damping         CNVZerner       .... off
 Static damping         CNVDamp         .... on
   Fraction old density DampFac         ....    0.7000
   Max. Damping (<1)    DampMax         ....    0.9800
   Min. Damping (>=0)   DampMin         ....    0.0000
   Turn off err/grad.   DampErr         ....    0.1000

SCF Procedure:
 Maximum # iterations   MaxIter         ....   125
 SCF integral mode      SCFMode         .... Direct
   Integral package                     .... SHARK and LIBINT hybrid scheme
 Reset frequency        DirectResetFreq ....    20
 Integral Threshold     Thresh          ....  2.500e-11 Eh
 Primitive CutOff       TCut            ....  2.500e-12 Eh

Convergence Tolerance:
 Convergence Check Mode ConvCheckMode   .... Total+1el-Energy
 Convergence forced     ConvForced      .... 0
 Energy Change          TolE            ....  1.000e-08 Eh
 1-El. energy change                    ....  1.000e-05 Eh
 Orbital Gradient       TolG            ....  1.000e-05
 Orbital Rotation angle TolX            ....  1.000e-05
 DIIS Error             TolErr          ....  5.000e-07

---------------------
INITIAL GUESS: MOREAD
---------------------
Guess MOs are being read from file: opt.gbw
Input Geometry matches current geometry (good)
Input basis set matches current basis set (good)
Occupation numbers will be reassigned to an Aufbau configuration
MOs were renormalized
MOs were reorthogonalized (Cholesky)
                      ------------------
                      INITIAL GUESS DONE (   0.0 sec)
                      ------------------
             **** ENERGY FILE WAS UPDATED (opt.en.tmp) ****
Finished Guess after   0.4 sec
Maximum memory used throughout the entire GUESS-calculation: 5.4 MB


           ************************************************************
           *        Program running with 4 parallel MPI-processes     *
           *              working on a common directory               *
           ************************************************************

-------------------------------------------------------------------------------------------
                                      ORCA LEAN-SCF
                              memory conserving SCF solver
-------------------------------------------------------------------------------------------

----------------------------------------D-I-I-S--------------------------------------------
Iteration    Energy (Eh)           Delta-E    RMSDP     MaxDP     DIISErr   Damp  Time(sec)
-------------------------------------------------------------------------------------------
               ***  Starting incremental Fock matrix formation  ***
                              *** Initializing SOSCF ***
---------------------------------------S-O-S-C-F--------------------------------------
Iteration    Energy (Eh)           Delta-E    RMSDP     MaxDP     MaxGrad    Time(sec)
--------------------------------------------------------------------------------------
    1    -56.5128425337094384     0.00e+00  3.95e-05  2.52e-04  2.28e-05     0.0
               *** Restarting incremental Fock matrix formation ***
    2    -56.5128426534222186    -1.20e-07  1.51e-05  1.32e-04  4.28e-05     0.0
    3    -56.5128426453694104     8.05e-09  9.31e-06  6.83e-05  6.31e-05     0.0
                 **** Energy Check signals convergence ****

               *****************************************************
               *                     SUCCESS                       *
               *           SCF CONVERGED AFTER   3 CYCLES          *
               *****************************************************

             **** ENERGY FILE WAS UPDATED (opt.en.tmp) ****

----------------
TOTAL SCF ENERGY
----------------

Total Energy       :        -56.51284264536941 Eh           -1537.79263 eV

Components:
Nuclear Repulsion  :         11.77647206298888 Eh             320.45410 eV
Electronic Energy  :        -68.28931470835829 Eh           -1858.24672 eV
One Electron Energy:        -99.32335498609031 Eh           -2702.72589 eV
Two Electron Energy:         31.03404027773203 Eh             844.47917 eV

Virial components:
Potential Energy   :       -112.45116285024994 Eh           -3059.95171 eV
Kinetic Energy     :         55.93832020488054 Eh            1522.15908 eV
Virial Ratio       :          2.01027064163501

DFT components:
N(Alpha)           :        5.000006814283 electrons
N(Beta)            :        5.000006814283 electrons
N(Total)           :       10.000013628566 electrons
E(X)               :       -7.704339789106 Eh       
E(C)               :       -0.320291089860 Eh       
E(XC)              :       -8.024630878966 Eh       

---------------
SCF CONVERGENCE
---------------

  Last Energy change         ...   -8.0528e-09  Tolerance :   1.0000e-08
  Last MAX-Density change    ...    6.8350e-05  Tolerance :   1.0000e-07
  Last RMS-Density change    ...    9.3074e-06  Tolerance :   5.0000e-09
  Last DIIS Error            ...    1.2854e-04  Tolerance :   5.0000e-07
  Last Orbital Gradient      ...    6.3150e-05  Tolerance :   1.0000e-05
  Last Orbital Rotation      ...    3.0458e-05  Tolerance :   1.0000e-05


----------------
ORBITAL ENERGIES
----------------

  NO   OCC          E(Eh)            E(eV) 
   0   2.0000     -14.089946      -383.4069 
   1   2.0000      -0.771689       -20.9987 
   2   2.0000      -0.401353       -10.9214 
   3   2.0000      -0.401353       -10.9214 
   4   2.0000      -0.210921        -5.7394 
   5   0.0000       0.041933         1.1410 
   6   0.0000       0.123991         3.3740 
   7   0.0000       0.123991         3.3740 
   8   0.0000       0.494668        13.4606 
   9   0.0000       0.494668        13.4606 
  10   0.0000       0.620591        16.8872 
  11   0.0000       0.717822        19.5329 
  12   0.0000       0.813783        22.1442 
  13   0.0000       0.813783        22.1442 
  14   0.0000       0.922294        25.0969 
  15   0.0000       1.172336        31.9009 
*Only the first 10 virtual orbitals were printed.

                    ********************************
                    * MULLIKEN POPULATION ANALYSIS *
                    ********************************

-----------------------
MULLIKEN ATOMIC CHARGES
-----------------------
   0 N :   -0.247163
   1 H :    0.082388
   2 H :    0.082388
   3 H :    0.082388
Sum of atomic charges:    0.0000000

--------------------------------
MULLIKEN REDUCED ORBITAL CHARGES
--------------------------------
  0 N s       :     3.459134  s :     3.459134
      pz      :     1.256821  p :     3.770464
      px      :     1.256821
      py      :     1.256821
      dz2     :     0.008604  d :     0.017564
      dxz     :     0.000119
      dyz     :     0.000119
      dx2y2   :     0.008604
      dxy     :     0.000119

  1 H s       :     0.873113  s :     0.873113
      pz      :     0.021199  p :     0.044500
      px      :     0.011650
      py      :     0.011650

  2 H s       :     0.873113  s :     0.873113
      pz      :     0.011650  p :     0.044500
      px      :     0.011650
      py      :     0.021199

  3 H s       :     0.873113  s :     0.873113
      pz      :     0.011650  p :     0.044500
      px      :     0.021199
      py      :     0.011650



                     *******************************
                     * LOEWDIN POPULATION ANALYSIS *
                     *******************************

----------------------
LOEWDIN ATOMIC CHARGES
----------------------
   0 N :   -0.162129
   1 H :    0.054043
   2 H :    0.054043
   3 H :    0.054043

-------------------------------
LOEWDIN REDUCED ORBITAL CHARGES
-------------------------------
  0 N s       :     3.184777  s :     3.184777
      pz      :     1.313816  p :     3.941448
      px      :     1.313816
      py      :     1.313816
      dz2     :     0.017592  d :     0.035904
      dxz     :     0.000240
      dyz     :     0.000240
      dx2y2   :     0.017592
      dxy     :     0.000240

  1 H s       :     0.831922  s :     0.831922
      pz      :     0.062914  p :     0.114035
      px      :     0.025561
      py      :     0.025561

  2 H s       :     0.831922  s :     0.831922
      pz      :     0.025561  p :     0.114035
      px      :     0.025561
      py      :     0.062914

  3 H s       :     0.831922  s :     0.831922
      pz      :     0.025561  p :     0.114035
      px      :     0.062914
      py      :     0.025561



                      *****************************
                      * MAYER POPULATION ANALYSIS *
                      *****************************

  NA   - Mulliken gross atomic population
  ZA   - Total nuclear charge
  QA   - Mulliken gross atomic charge
  VA   - Mayer's total valence
  BVA  - Mayer's bonded valence
  FA   - Mayer's free valence

  ATOM       NA         ZA         QA         VA         BVA        FA
  0 N      7.2472     7.0000    -0.2472     2.9775     2.9775     0.0000
  1 H      0.9176     1.0000     0.0824     0.9944     0.9944     0.0000
  2 H      0.9176     1.0000     0.0824     0.9944     0.9944     0.0000
  3 H      0.9176     1.0000     0.0824     0.9944     0.9944     0.0000

  Mayer bond orders larger than 0.100000
B(  0-N ,  1-H ) :   0.9925 B(  0-N ,  2-H ) :   0.9925 B(  0-N ,  3-H ) :   0.9925 


-------
TIMINGS
-------

Total SCF time: 0 days 0 hours 0 min 0 sec 

Total time                  ....       0.430 sec
Sum of individual times     ....       0.425 sec  ( 98.8%)

SCF preparation             ....       0.386 sec  ( 89.6%)
Fock matrix formation       ....       0.030 sec  (  7.0%)
  Startup                   ....       0.001 sec  (  2.5% of F)
  Split-RI-J                ....       0.003 sec  (  9.1% of F)
  XC integration            ....       0.025 sec  ( 83.5% of F)
    Basis function eval.    ....       0.005 sec  ( 18.5% of XC)
    Density eval.           ....       0.006 sec  ( 25.3% of XC)
    XC-Functional eval.     ....       0.007 sec  ( 26.4% of XC)
    XC-Potential eval.      ....       0.004 sec  ( 17.6% of XC)
Diagonalization             ....       0.000 sec  (  0.0%)
Density matrix formation    ....       0.001 sec  (  0.1%)
Total Energy calculation    ....       0.001 sec  (  0.1%)
Population analysis         ....       0.005 sec  (  1.2%)
Orbital Transformation      ....       0.001 sec  (  0.2%)
Orbital Orthonormalization  ....       0.000 sec  (  0.0%)
DIIS solution               ....       0.001 sec  (  0.2%)
SOSCF solution              ....       0.002 sec  (  0.4%)
Finished LeanSCF after   0.4 sec

Maximum memory used throughout the entire LEANSCF-calculation: 5.6 MB

-------------------------   --------------------
FINAL SINGLE POINT ENERGY       -56.512842645369
-------------------------   --------------------

                                *** OPTIMIZATION RUN DONE ***



           ************************************************************
           *        Program running with 4 parallel MPI-processes     *
           *              working on a common directory               *
           ************************************************************

------------------------------------------------------------------------------
                              ORCA PROPERTY CALCULATIONS
------------------------------------------------------------------------------

GBWName                                 ... opt.gbw
Number of atoms                         ...      4
Number of basis functions               ...     29
Max core memory                         ...   1024 MB

Electric properties:
Dipole moment                           ... YES
Quadrupole moment                       ...  NO
Static polarizability (Dipole/Dipole)   ...  NO
Static polarizability (Dipole/Quad.)    ...  NO
Static polarizability (Quad./Quad.)     ...  NO
Static polarizability (Velocity)        ...  NO

Atomic electric properties:
Dipole moment                           ...  NO
Quadrupole moment                       ...  NO
Static polarizability                   ...  NO

Choice of electric origin               ... Center of mass
Position of electric origin             ...     0.207407     0.207407     0.207407

General magnetic properties:
Magnetizability                         ...  NO

EPR properties:
g-Tensor (aka g-matrix)                 ...  NO
Zero-Field splitting spin-orbit         ...  NO
Zero-field splitting spin-spin          ...  NO
Hyperfine couplings                     ...  NO (   0 nuclei)
Quadrupole couplings                    ...  NO (   0 nuclei)
Contact density                         ...  NO (   0 nuclei)

NMR properties:
Chemical shifts                         ...  NO (   0 nuclei)
Spin-rotation constants                 ...  NO (   0 nuclei)
Spin-spin couplings                     ...  NO (   0 nuclei,    0 pairs)

Choice of magnetic origin               ... GIAO
Position of magnetic origin             ...     0.000000     0.000000     0.000000

Properties with geometric perturbations:
SCF Hessian                             ...  NO
IR spectrum                             ...  NO
VCD spectrum                            ...  NO
X-ray spectroscopy properties:
SCF XES/XAS/RIXS spectra                ...  NO


-------------
DIPOLE MOMENT
-------------

Method             : SCF
Type of density    : Electron Density
Multiplicity       :   1
Irrep              :   0
Energy             :   -56.5128426453694104 Eh
Relativity type    : 
Basis              : AO
                                X                 Y                 Z
Electronic contribution:     -0.167473993      -0.167473993      -0.167473993
Nuclear contribution   :      0.566870988       0.566870988       0.566870988
                        -----------------------------------------
Total Dipole Moment    :      0.399396995       0.399396995       0.399396995
                        -----------------------------------------
Magnitude (a.u.)       :      0.691775888
Magnitude (Debye)      :      1.758354569



--------------------
Rotational spectrum 
--------------------
 
Rotational constants in cm-1:             9.487861             9.487861             6.342610 
Rotational constants in MHz :        284438.921612        284438.921505        190146.663902 

Dipole components along the rotational axes: 
x,y,z [a.u.] :    -0.000000     0.000000     0.691776 
x,y,z [Debye]:    -0.000000     0.000000     1.758355 

 

Dipole moment calculation done in   0.0 sec 

Maximum memory used throughout the entire PROP-calculation: 4.0 MB

--------------------------------
SUGGESTED CITATIONS FOR THIS RUN
--------------------------------

Below you find a list of papers that are relevant to this ORCA run
We neither can nor want to force you to cite these papers, but we appreciate if you do
You receive ORCA, which is the product of decades of hard work by many enthusiastic individuals, for free
The only thing we kindly ask in return is that you cite our papers,
We deeply appreciate it, if you show your appreciation for ORCA by not just citing the generic ORCA reference.

Please note that relegating all ORCA citations to the supporting information does *not* help us.
SI sections are not indexed - citations you put there will not count into any citation statistics
But we need these citations in order to attract the funding resources that allow us to do what we are doing

Therefore, if you are a happy ORCA user, please consider citing a few of the papers listed below in the main body of your paper

In addition to the list printed below, the program has created the file opt.bibtex that contains the list in bibtex format
You can import this file easily into all common literature databanks and citation aid programs


List of essential papers. We consider these as the minimum necessary citations

  1. Neese,F.
     Software update: the ORCA program system, version 5.0
     WIRES Comput. Molec. Sci., 2022 12(1)e1606
     doi.org/10.1002/wcms.1606

List of papers to cite with high priority. The work reported in these papers was absolutely
necessary for this run to complete.
Our perspective: the developers of density functionals and basis sets usually get cited in chemistry papers
Good! But without the algorithms to do something with them, the functionals or basis sets would not do anything.
Hence, in our opinion, the algorithm design and method developments papers are equally worthy of getting cited

  1. Neese,F.
     An improvement of the resolution of the identity approximation for the formation of the Coulomb matrix
     J. Comp. Chem., 2003 24(14)1740-1747
     doi.org/10.1002/jcc.10318
  2. Neese,F.
     The SHARK Integral Generation and Digestion System
     J. Comp. Chem., 2022  1-16
     doi.org/10.1002/jcc.26942

List of suggested additional citations. These are papers that are important in the 'surrounding' of 
of this run, or papers that preceded the highly important papers. If you like your results we are grateful for a citation.

  1. Neese,F.
     The ORCA program system
     WIRES Comput. Molec. Sci., 2012 2(1)73-78
     doi.org/10.1002/wcms.81
  2. Neese,F.
     Software update: the ORCA program system, version 4.0
     WIRES Comput. Molec. Sci., 2018 8(1)1-6
     doi.org/10.1002/wcms.1327
  3. Neese,F.; Wennmohs,F.; Becker,U.; Riplinger,C.
     The ORCA quantum chemistry program package
     J. Chem. Phys., 2020 152 Art. No. L224108
     doi.org/10.1063/5.0004608

List of optional additional citations

  1. Neese,F.
     Approximate second-order SCF convergence for spin unrestricted wavefunctions
     Chem. Phys. Lett., 2000 325(1-3)93-98
     doi.org/10.1016/s0009-2614(00)00662-x

Timings for individual modules:

Sum of individual times          ...       13.610 sec (=   0.227 min)
Startup calculation              ...        3.415 sec (=   0.057 min)  25.1 %
SCF iterations                   ...        6.709 sec (=   0.112 min)  49.3 %
Property calculations            ...        0.563 sec (=   0.009 min)   4.1 %
SCF Gradient evaluation          ...        2.915 sec (=   0.049 min)  21.4 %
Geometry relaxation              ...        0.008 sec (=   0.000 min)   0.1 %
                             ****ORCA TERMINATED NORMALLY****
TOTAL RUN TIME: 0 days 0 hours 0 minutes 16 seconds 619 msec
